13
Properties=species:S:1:pos:R:3:forces:R:3 energy=-64.4926986694336 pbc="F F F"
C       -1.19974685       4.67274714       0.76615387      -1.69645488      -2.66499162      -2.06680894
H       -2.09918165       4.72797394       0.09633159       0.74872130       0.17735907       0.70657259
H       -0.76349556       5.52307224       1.06231403       1.30418754       3.75511885       1.39160049
C       -0.65022397       3.50104570       0.96406442      -1.44229829      -0.83647895       0.22194196
C       -0.47678447       2.24672079       0.98699445       3.71287274      -3.73657203      -2.62347317
C        0.12738232       1.08952367       0.55612034      -3.90198064       6.51110840       4.10530329
C        0.42436430      -0.11710320       0.60211110       1.88701034      -1.28566515      -2.38784218
C        0.80010200      -1.11607003      -0.13656022      -1.65926564      -1.32426953       1.18499959
C        0.49378511      -2.21444988      -0.70532233       0.90593868      -1.84219742      -1.72578335
C        0.37454480      -3.37017488      -1.28360903      -0.11472063      -0.22044259       1.65756619
H       -0.38294277      -5.42168331      -1.26488423      -1.17965543      -0.26269519       1.05807126
H        0.98182070      -5.16959858      -2.25026178       0.16999303       0.50646609      -0.18390450
C        0.30018869      -4.66412640      -1.55106413       1.26565182       1.22325993      -1.33824325
13
Properties=species:S:1:pos:R:3:forces:R:3 energy=-64.97451782226562 pbc="F F F"
C       -3.22482896       3.11304379      -2.05201864      -3.81078291       2.70200729      -2.91145802
H       -2.89239502       4.02755928      -2.62975788      -1.20196831      -0.91518992       0.41254315
H       -4.25741768       2.70110464      -2.05943751       0.59035134       0.77311677      -0.59321707
C       -2.36025858       2.57779264      -1.33020866       5.70879698      -1.48848903       3.06200767
C       -1.20908833       2.21202517      -0.83399528      -1.61796451      -2.04784107      -0.34584188
C       -0.45738387       1.22708619      -0.49773589       1.09758067      -1.05715132       1.17548168
C        0.13883500       0.16781186      -0.00615185      -0.91996539       2.01452541      -0.75787449
C        0.72375733      -0.81969708       0.51718754       3.90512252      -2.92880559       2.76998830
C        1.57530653      -1.72383082       1.10971642      -5.90846109       5.06771708      -4.29417515
C        2.07120013      -2.83938861       1.32107115       1.53986418       0.07697415       0.92137182
H        3.41264725      -4.46331930       1.24358344       0.40561125      -0.11014833      -0.41231370
H        2.71869326      -4.08166027       2.83475065       0.26083186      -0.00377700       1.22272456
C        2.82848573      -3.76300645       1.82146847      -0.04901613      -2.08293843      -0.24923679
13
Properties=species:S:1:pos:R:3:forces:R:3 energy=-65.064697265625 pbc="F F F"
C        0.48360798       4.58205032       1.83981740       0.29525203      -1.89536142       0.08846755
H        1.45504487       5.02628183       2.09557343       0.01187068      -0.00637006      -0.43556821
H       -0.27365828       5.05023527       2.47084594      -0.44579920      -0.17666663      -0.77648658
C        0.42798015       3.45169115       1.12150800       2.09140778      -0.30774960      -0.67245996
C        0.81422240       2.35861135       0.48129356      -1.84438264       3.84536004       2.56726718
C        0.70670605       1.14700246       0.12028690       1.06186879       2.97658324       0.50922185
C        0.36463064       0.01996914      -0.19802816      -3.47558379      -6.74923849      -1.12217176
C       -0.18383448      -1.18418336      -0.37866452       3.82528663       6.59340715       0.59831709
C       -0.27407309      -2.33917046      -0.78631717      -0.99666905      -4.33160114      -0.45700276
C       -0.67926723      -3.53053784      -1.04359591       0.27129063       1.89548838       0.58616179
H       -1.60950649      -4.72745132      -2.32618666      -0.68348199      -1.20845306      -1.75308478
H       -2.03554845      -5.02661037      -0.49636769       0.72414511      -0.13126691      -0.97688025
C       -1.45540595      -4.52855206      -1.31100178      -0.83520520      -0.50413144       1.84421897
13
Properties=species:S:1:pos:R:3:forces:R:3 energy=-64.13432312011719 pbc="F F F"
C        0.80331194       4.49384356       1.87172723      -0.29729813      -3.43031526      -3.46625519
H        1.56403255       5.25987482       1.84600568      -0.00308743       0.17532504       0.56043541
H       -0.28064647       4.77554655       1.98097897       1.44710696      -0.22662857       0.69908243
C        1.03016138       3.26605844       1.26906800      -0.92089051       7.42664814       4.16158104
C        0.89355451       2.14975238       0.77158767       0.72780442       0.07591419      -0.43560019
C        0.57765126       1.13039267       0.15136762      -0.35925630      -4.14974737      -1.65284288
C        0.25876170      -0.07013297      -0.21416794      -0.37503928       3.88542461       1.88479567
C       -0.35207495      -1.14898217      -0.13339250       0.82517350      -2.84752369      -1.31589007
C       -0.59559345      -2.33339071      -0.57346737       0.77847946       2.53881216       0.05009764
C       -0.93244630      -3.20719504      -1.39052606      -1.32042754      -1.46022320       0.56673306
H       -1.03272605      -5.20858622      -1.50085533       0.43975601      -1.88652301       0.05301656
H       -2.58541107      -4.35067701      -2.07731247       1.31693852      -0.06070612      -0.68283349
C       -1.51447499      -4.31064129      -1.75924361      -2.25925994      -0.04045703      -0.42231983
13
Properties=species:S:1:pos:R:3:forces:R:3 energy=-64.7601318359375 pbc="F F F"
C        0.50711268       4.93481493       1.49523294       0.40284342      -5.09037733      -1.43173385
H        0.89162189       5.20953465       2.42949104      -0.01214497       0.78115904       1.58258069
H        0.47577369       5.56199980       0.66950297      -0.30440882       2.36513591      -1.34439337
C        0.39664134       3.64297295       1.12280881       0.01872900      -1.04573894      -0.06071193
C        0.28188330       2.39801931       0.69802791       0.25063393       5.81353998       2.27956462
C        0.04001985       1.22540629       0.40381899      -1.24223185      -6.97255373      -1.10509014
C       -0.17081283      -0.08778585       0.17136824       0.71035206       7.08382845       0.08812118
C       -0.35936397      -1.13475692      -0.48437035       1.52422059      -3.60602593       0.72428679
C       -0.13952862      -2.38416648      -0.73238283      -2.62680173      -5.59451580      -3.43749809
C       -0.30679181      -3.67577553      -1.20910978       1.89394248      10.63959408       3.84904766
H        0.51793194      -5.61640787      -1.45253599       0.17802803       0.22320278      -0.21698436
H       -1.27349925      -5.34885597      -1.67201221      -0.33075681      -0.64187610      -0.24960467
C       -0.30431589      -4.90136147      -1.46852553      -0.46240523      -3.95537281      -0.67758453
13
Properties=species:S:1:pos:R:3:forces:R:3 energy=-63.979583740234375 pbc="F F F"
C       -2.93116236       3.19642019      -2.17607474      -4.73893356      -1.99103498       0.18759763
H       -2.78560638       4.07317400      -2.66832256       0.38656673       2.69123077      -1.99304903
H       -4.05979061       2.79901505      -2.23298311       2.94085336       0.99523360       0.22176923
C       -2.05319333       2.60692310      -1.46816456       3.30664372      -4.51976109       4.84602594
C       -1.37313747       1.81169271      -0.61453319      -5.26690245       5.79158783      -6.28258467
C       -0.62970161       1.07995594       0.01369968       1.64150739      -0.25509870       2.27923679
C        0.24235439       0.45700246       0.66502529       1.28549373      -3.94058752       0.19122602
C        0.88791829      -0.66301763       0.85391355      -3.38622165       7.87390137      -0.11808096
C        1.62931848      -1.60167503       0.99779344       1.58984160      -3.42403269      -0.18338534
C        1.93398046      -2.81407666       0.83540845       0.35304406       3.56421494       0.73530167
H        2.00811577      -4.63794041       0.33900124       1.57993257      -0.52610552       1.38562977
H        3.03389835      -4.07268667       1.94560361       1.43815327      -1.23592246       1.62626731
C        2.44596744      -3.91892624       1.11072195      -1.12997854      -5.02362537      -2.89595485
13
Properties=species:S:1:pos:R:3:forces:R:3 energy=-63.300758361816406 pbc="F F F"
C       -2.14097905       3.37859821      -2.77829337      -0.96387893      -2.41348886       3.44667006
H       -1.59049296       3.44965291      -3.65468788       1.45694447       1.40620327      -1.58092630
H       -3.24021029       3.40478349      -2.94756079       0.80991536       0.27908468       0.46675071
C       -1.59698904       2.79376554      -1.65697777      -4.79964685       6.48178864      -8.41157627
C       -1.25421715       1.86006224      -1.01258814       3.74409032      -4.66690540       5.85323048
C       -0.54708952       1.11935723      -0.22395089      -1.18000460       1.87587929      -1.22158229
C        0.30923799       0.45125955       0.40580904      -1.68027020      -1.19872618       0.22176646
C        0.50152868      -0.71417242       0.86589056       1.48807108       1.04592514      -0.44567409
C        0.94902289      -1.85748994       1.09164834       1.50061989      -0.98619777       1.99524331
C        1.65936852      -2.77384472       1.59844351       0.98125011      -7.02420044       0.34838670
H        3.02208042      -4.64281178       1.52520645      -2.19910550       1.56248760      -0.02708493
H        1.83893144      -4.56427097       2.89005804       0.01573747       0.93362767      -0.86578423
C        2.11350775      -4.05168915       1.93136466       0.82627726       2.70452237       0.22058000
13
Properties=species:S:1:pos:R:3:forces:R:3 energy=-64.56201171875 pbc="F F F"
C       -2.38401413       3.87733579      -1.93844604      -2.07376409       3.95388365      -3.11854672
H       -2.59646177       3.93733025      -3.07888079       0.34133321       0.40196994       2.59588337
H       -2.56796551       4.72284746      -1.20552289      -0.48794755      -0.52178818      -1.55712557
C       -1.87357295       2.86409855      -1.40642905       4.98318338      -5.95637465       5.94254112
C       -1.22496092       2.07284617      -0.50837886      -4.31152725       3.69873714      -5.16209364
C       -0.75768739       1.05465424       0.04998177       0.47199169       0.90984809       0.16139135
C       -0.05067302       0.15858558       0.54612678       2.16178060      -3.90465355       2.18076992
C        0.64811480      -0.86354536       0.97666568      -2.53306246       3.83355999      -1.18072081
C        1.23326600      -1.94296384       1.15860093       2.17683172      -5.75770330      -1.59464622
C        1.72276568      -3.14429474       0.82541698      -1.13025320       3.82456160       1.93772507
H        2.51754975      -4.93634272      -0.18583965       0.22926693       2.01600266       2.49382329
H        3.64856195      -3.83189321       1.06341386      -1.72721994      -1.03364885      -1.13460910
C        2.61295438      -4.06041574       0.59315890       1.89938688      -1.46439469      -1.56439209
13
Properties=species:S:1:pos:R:3:forces:R:3 energy=-64.15184020996094 pbc="F F F"
C       -0.33177656       4.15346336       1.79634774      -1.21584368       2.84324598      -0.69544476
H        0.45357561       3.87907100       2.51993370      -0.96489096       0.19457802       0.06054527
H       -0.91091698       5.17521048       1.88554907       1.71689355      -2.39717746       0.17972429
C       -0.51200664       3.43084168       0.71023268       0.32709706       1.70397270       1.96090233
C       -0.50993550       2.58019233      -0.20745382       0.44228253      -1.53201735      -0.62026221
C       -0.23214829       1.40517533      -0.61582977      -0.72753119      -1.23519278      -0.81297505
C       -0.09773924       0.12741280      -0.66527396      -0.68752992       1.58647025       0.93315905
C       -0.13926221      -1.11045277      -0.34794375       2.26541924       1.39309561      -1.70860469
C        0.41893110      -2.25620508      -0.33046332      -2.78384805       1.46616817       1.15380871
C        0.43075073      -3.49159217      -0.19090298       2.36912489      -2.90430260      -0.67941260
H        1.82145524      -5.16645241      -0.25145227      -0.06791677       0.38229722      -0.09476316
H        0.08395475      -5.42045307      -0.96909845       1.71768606       1.20239437       1.69206774
C        0.85269815      -4.70643187      -0.43315718      -2.39094281      -2.70353222      -1.36874497
13
Properties=species:S:1:pos:R:3:forces:R:3 energy=-63.52574157714844 pbc="F F F"
C       -0.38547578       3.70014405      -2.95574760       0.03154739       1.04618001      -0.94122553
H       -0.30304509       4.03653002      -3.96908426       0.64506972       1.31321669      -0.45984539
H       -0.31957883       4.30696583      -2.04631209      -0.45550886       0.58234406      -0.56566244
C       -0.61066329       2.44162107      -2.82038069      -0.52207947      -4.32266998       3.21884465
C       -0.66650641       1.37409818      -2.05191851       0.87890470       2.34790850       0.60403329
C       -0.42475125       0.78245735      -0.91742253      -1.09540629      -1.00170338      -3.63885117
C       -0.41282544      -0.14373721      -0.04051648      -0.01699561       2.07740712       1.30991781
C       -0.27331996      -0.65963197       1.10497427       0.83945709      -4.09766865       2.41539383
C        0.00499869      -1.56935441       2.02397323       4.01238203      -1.56572497      -0.12268452
C        0.82766414      -2.46663070       2.60746479      -1.16484308      -0.24862929      -0.68803352
H        1.55169785      -4.47102880       2.69492197      -0.43733197      -3.06340694      -1.17937565
H        2.31361175      -3.37770915       3.91477442      -0.40044919       0.10070765      -1.62709773
C        1.64797664      -3.51334715       3.00861096      -2.31474614       6.83203888       1.67458653
13
Properties=species:S:1:pos:R:3:forces:R:3 energy=-63.75875473022461 pbc="F F F"
C       -1.34902847       3.67935801      -2.89844632      -0.73978466       2.33286881      -0.85573447
H       -1.81534874       4.04984951      -3.84614754       0.57522053      -1.66240168       0.46486360
H       -1.18750501       4.66033697      -2.39492440       0.04917616      -0.66932285       0.40963101
C       -1.04306257       2.54984498      -2.31195903      -0.94808465       3.45427132      -1.96769083
C       -0.62913048       1.75440013      -1.46521115       0.50101262      -2.85969257       1.14972270
C       -0.29208675       0.68738246      -0.83787262      -1.58208025       5.69220877      -2.57229996
C        0.13141826      -0.28295234      -0.27903622       1.33606100      -6.95819044       1.76037669
C        0.37522262      -1.44866168       0.23765129       1.57296336       1.96956420       2.38752580
C        0.84778446      -1.95784438       1.33445811      -1.33389819      -2.25942516      -2.28106618
C        0.97572422      -2.67237306       2.39468145      -0.28506446       2.44567323      -5.81991768
H        0.30367887      -3.11802053       4.37222910       1.13662016       1.43431044      -1.99021804
H        1.84863842      -2.39032888       4.26620197       2.61838722       1.06013274       1.25013959
C        1.07140815      -2.58674312       3.62384605      -2.90052891      -3.97999740       8.06466770
13
Properties=species:S:1:pos:R:3:forces:R:3 energy=-64.86888122558594 pbc="F F F"
C       -2.95418906       3.17752934      -2.19626975      -0.03777223      -1.44863343       1.72475159
H       -2.79142785       4.06702185      -2.67939496       0.46043262       2.36502862      -1.74074924
H       -3.97779512       2.82201314      -2.20178270      -0.36651015      -0.25267494      -0.18477511
C       -2.04791451       2.60146809      -1.44709361      -0.12976661      -1.57479227       1.19576406
C       -1.40801466       1.82141626      -0.63616055      -1.79474914       2.67718577      -2.91499496
C       -0.62125713       1.10002768      -0.00059865       1.45855236      -0.05855343       2.28982902
C        0.26317933       0.47789595       0.67711240      -0.46890333      -2.41311121      -1.17310143
C        0.87132698      -0.65449792       0.83404881      -1.62128890       5.80309677       0.25399831
C        1.62575972      -1.60996139       0.99092174      -0.02025603      -1.20046532      -0.16555983
C        1.93903542      -2.80715013       0.85896182       1.72205806      -0.33453345       1.83154225
H        2.41163921      -4.48755503       0.21806943       0.75914240      -2.53305483      -0.67990714
H        2.82440519      -4.22319746       2.12248969       0.04649136      -0.48367143      -0.50212181
C        2.46377969      -3.95306015       1.12972510      -0.00743023      -0.54582053       0.06532423
13
Properties=species:S:1:pos:R:3:forces:R:3 energy=-64.02859497070312 pbc="F F F"
C       -0.90346730       4.86439419       0.88842058      -3.49726725      -3.62327623      -1.33041656
H       -0.15220463       5.56250525       1.09992516       1.25423563       0.70845842       0.70117009
H       -1.96380508       5.39528036       0.78852916       2.78562975      -1.70065010      -0.11682004
C       -0.72392750       3.50277829       0.69429946      -1.76204491      10.00358868       2.43611932
C       -0.48221785       2.31368542       0.60540211       0.66927671      -1.60623538      -1.72688520
C       -0.09358899       1.31892312      -0.08432609       0.13431202      -3.76669478       1.63909137
C        0.12776011       0.05441533      -0.14853896       0.73113716      -1.25263321      -3.83682466
C        0.39124137      -1.10517097      -0.70996958      -0.70754653       0.21187912       2.07462502
C        0.45534042      -2.39457965      -0.81133765       1.05114579      -0.42177495       1.66643691
C        0.63977379      -3.62130880      -0.42890245      -1.29475474      -0.53456622      -1.68086696
H        1.60306430      -5.39638662       0.04575302      -0.47635552      -0.70731604      -0.75812227
H       -0.33564270      -5.43626785       0.20801860       1.98943388       0.74096638      -0.67681253
C        0.63161826      -4.93981075      -0.16649044      -0.87720221       1.94825411       1.60930550
13
Properties=species:S:1:pos:R:3:forces:R:3 energy=-64.8267593383789 pbc="F F F"
C       -0.44113046       4.88596439       1.19533086      -1.21102786      -2.51700592      -0.57712901
H       -0.99297136       5.48067141       0.42682299       0.89069456      -0.36980113       0.77917510
H       -0.12289269       5.32393503       2.11700082       0.19664533       0.89002633       0.42423415
C       -0.37527785       3.54620957       1.11390352       0.41636947      -0.63050729      -3.32485366
C       -0.29366601       2.33506680       0.55932355       0.97543478      -0.21283661       4.52296352
C       -0.04701620       1.04003322       0.70764661      -2.68378043       2.29437661      -2.36879396
C       -0.20950907      -0.21446842       0.42996660       1.53775775       1.34770644       1.88402164
C       -0.08121048      -1.46603656       0.27176285       0.73751783      -1.31128311      -3.25475979
C        0.18940434      -2.44063115      -0.57002795      -1.55143082       1.53294742       2.47958803
C        0.38251132      -3.40653419      -1.34535301       1.90652978      -1.99445069      -1.33833778
H        0.08939189      -5.13810349      -2.42137814       0.13159493      -0.79045188      -0.35619324
H        1.85766530      -4.36391592      -2.65476418      -2.40887713      -0.22591493       1.20390964
C        0.80874753      -4.38772917      -2.15010357       1.06257176       1.98719490      -0.07382440
13
Properties=species:S:1:pos:R:3:forces:R:3 energy=-65.19287872314453 pbc="F F F"
C       -4.68330956       1.46172881      -0.41378507       2.26904702       1.99914718       2.22965622
H       -5.17427301       2.33051014       0.02547426      -0.02840370      -0.18442097      -0.01010356
H       -5.09343529       0.93059987      -1.14861548      -3.02802277      -2.11928868      -3.33914185
C       -3.45308065       1.08550811      -0.16364491       1.77583635       0.42188966       2.16273761
C       -2.28592587       0.81059033       0.30417734       1.02379000      -1.64267099      -0.94003522
C       -1.09738851       0.29769629       0.54740202      -7.78575706       2.92200494      -0.37409997
C        0.05405829      -0.00395195       0.78358388       4.20218420      -0.16236940       0.48888892
C        1.30001414      -0.15719496       0.59201437       1.55924213      -1.97158611      -1.16767681
C        2.34086776      -0.70188451       0.04811108      -1.97583568       1.39133668       2.23671150
C        3.41070580      -1.20150113      -0.36285192      -0.30140814       1.00012720      -0.37603796
H        4.66082811      -1.39364398      -2.05365324       0.14150396       1.12180424      -0.91003656
H        5.06871700      -2.31598759      -0.69085175       2.03038216      -1.87715375       1.29007697
C        4.45683527      -1.55089533      -1.01556218       0.11744183      -0.89881992      -1.29093933
13
Properties=species:S:1:pos:R:3:forces:R:3 energy=-64.42556762695312 pbc="F F F"
C       -0.80286425       4.63708401      -0.07140458       1.92310715       2.66282010      -0.74802524
H       -0.40851218       5.55378151      -0.60764885      -0.10278032      -1.66506839       0.44552687
H       -1.83993316       4.63845205      -0.03704325      -2.58844042       0.41759783       0.37254763
C       -0.15301038       3.70876050       0.56352216      -0.03169183      -0.53332883       0.45042646
C        0.06148423       2.50295162       0.94569182       0.09063993       2.79959249      -0.64285398
C        0.17614795       1.30356598       0.63052642       0.86771625      -4.96070671      -0.30479464
C        0.31007329       0.05734082       0.31573489      -0.17953582      -2.88801861      -0.92207128
C        0.31791094      -1.22159028      -0.06416890      -0.37777382       3.55858874       2.28911591
C        0.18665001      -2.50087094      -0.18963546       1.07457352       3.21371078      -1.25197339
C        0.20445974      -3.60429478      -0.79234588      -0.17205197      -0.88687420       1.29715133
H        0.68692893      -5.67125988      -1.36077178      -1.81909060       1.98243070       0.86188608
H       -1.11579847      -5.10812283      -1.02771211      -0.75227362      -0.64092958      -0.73848116
C       -0.08005282      -4.83323765      -1.08138275       2.06760144      -3.05981469      -1.10845459
13
Properties=species:S:1:pos:R:3:forces:R:3 energy=-63.71754837036133 pbc="F F F"
C       -0.12464089       3.13556576      -3.81225729      -4.36772490       1.44979274       3.41861939
H        0.89606124       3.04449272      -3.87891006       3.02881837       0.35058841      -1.28762639
H       -0.69648135       3.93990326      -4.49008036       1.33477795      -3.19630194       1.87109017
C       -0.48549068       2.58813024      -2.59942746      -0.31007227      -0.91813892       0.11849372
C       -0.61184108       1.85403454      -1.48989844       0.11814652       3.34578013      -3.68496752
C       -0.71159381       1.15626323      -0.41715130       0.27664834      -1.75292599      -2.74842072
C       -0.59881508      -0.05669916       0.03891725      -1.33718324       4.52646160      -0.04365261
C       -0.25664717      -0.81717783       0.94718146       3.13764524      -4.89696836       3.86303711
C        0.41690126      -1.60238516       1.76814067      -1.41416776      -0.45640144      -1.22139895
C        0.89311093      -2.61071301       2.42044997      -1.01332712       2.85657978      -0.94877708
H        2.17908692      -4.20061350       3.21321988      -1.30047798       1.25898004      -0.62963510
H        0.61954182      -4.03180504       4.00999069       0.03356976       1.04831386      -0.03929875
C        1.23660553      -3.54964542       3.22771835       1.81334722      -3.61575985       1.33253658
13
Properties=species:S:1:pos:R:3:forces:R:3 energy=-63.66059875488281 pbc="F F F"
C       -2.55829763       3.50839925      -2.05757308      -2.89636540       4.69971466      -2.74923444
H       -2.00042009       3.80479574      -3.01127172      -1.13141191      -0.25981548       1.51208162
H       -3.56707120       4.07876873      -1.84616399       2.49285793      -1.35581243      -0.73253256
C       -2.04761982       2.67506671      -1.24451470      -2.36071515       1.80423284      -2.25933599
C       -1.59949052       1.68448639      -0.72297275       6.96139717      -4.49864149       5.88002014
C       -0.60660881       1.16809881       0.02897436      -4.46219397       0.68217880      -2.19397092
C        0.06514957       0.27875918       0.61784863      -0.13101679       1.34861898      -0.27488500
C        0.85361570      -0.58438963       1.03557146       4.75749302      -8.01939487       0.34803870
C        1.56799161      -1.76774335       1.04038489      -2.77333426       6.50492239       1.89214885
C        2.18985820      -2.87986898       1.18408322      -1.66600513       1.13680339      -1.79057479
H        1.59718466      -4.07466745      -0.47855538       1.23897147       0.02060523       2.21679020
H        2.81958508      -4.87092638       0.69310260       0.32851028      -0.35094917       0.13766192
C        2.23796868      -3.99008775       0.50241673      -0.35818690      -1.71246338      -1.98620725
13
Properties=species:S:1:pos:R:3:forces:R:3 energy=-64.65876770019531 pbc="F F F"
C       -4.66489315       1.81429815       0.33509794      -1.12971520       1.07114995      -4.41796255
H       -5.55778980       1.15277255       0.32156631       0.23485790       0.97410095       0.44226211
H       -4.82268953       2.83842826      -0.36514989       0.60454375      -3.20610404       3.27039766
C       -3.49167156       1.22201920       0.40864199       1.21428657       1.54548943       1.91428828
C       -2.25744605       0.94056231       0.65101731       0.08600660      -0.79547179      -1.93447459
C       -1.04306304       0.54438937       0.41134027      -3.25939298       1.77667975       0.67689592
C        0.16142341       0.34269693       0.11952500      -3.50873804       0.83557075       1.18508446
C        1.21254158      -0.24345653      -0.08249003       3.25792789      -1.04126179      -0.51112473
C        2.26393986      -0.88171399      -0.27728730       6.72616291      -2.11812282      -0.89440316
C        3.46634459      -1.43430722      -0.47350040      -5.71540499       1.69110513       0.31791332
H        4.87987852      -2.99070787      -0.40593609       0.94822383      -1.20703840       1.77389777
H        4.88046885      -2.18917179      -1.89051604      -0.53917217       0.49680176      -0.26083058
C        4.40682650      -2.20044684      -0.89934188       1.08041382      -0.02289897      -1.56194401
13
Properties=species:S:1:pos:R:3:forces:R:3 energy=-64.6077651977539 pbc="F F F"
C       -0.35984990       4.83929491      -0.00891332      -2.05030727      -4.62045097      -1.45464361
H        0.16037016       5.51901627       0.52744651       1.78995693       2.80596828       1.50903070
H       -1.03796446       5.10942364      -0.81579161       0.04193033       0.47381803       0.02967197
C       -0.25620130       3.54238844       0.30684799       1.46357858      -0.44774732       2.03607130
C        0.13837112       2.42627048       0.87402040      -0.25187367      -2.71151090      -2.76514316
C        0.36772045       1.09632421       0.79953760      -1.48415053       4.88956118       1.68022299
C        0.29248315      -0.16735522       0.69369572       0.61996090       0.80497366      -1.87308335
C        0.27763474      -1.20308697      -0.06768584       0.05204165       0.85318857       0.85270017
C       -0.00929948      -2.24021554      -0.72548461      -0.57038492      -2.58514476       1.13450909
C       -0.23808561      -3.51715493      -0.76128036       0.64592004       4.00766373      -0.81752467
H        0.31072539      -5.22195101      -1.85351324      -0.40334883       0.16790843       1.17887759
H       -0.53914922      -5.49451828      -0.08459282       1.12120605       1.52658761      -2.39524722
C       -0.12014137      -4.76905870      -0.92417032      -0.97452939      -5.16481543       0.88455826
13
Properties=species:S:1:pos:R:3:forces:R:3 energy=-63.761871337890625 pbc="F F F"
C       -2.65857625       3.86746740      -1.54324377      -0.39386192      -4.52609301      -2.42602396
H       -2.83214903       4.62824345      -0.83514923       0.43554172       0.29014170       1.58841252
H       -3.14218140       4.18871784      -2.47603440       0.53257537       0.02763561      -0.25265867
C       -2.24123359       2.54339528      -1.48342025      -4.84191561      11.32598686      -0.53954750
C       -1.73851919       1.56288850      -1.04869652       8.31449986     -10.21665764       0.17220731
C       -0.71519202       0.63018548      -1.00696588      -4.56772804       4.06702375       1.34855354
C        0.13960014      -0.09090825      -0.44287372       1.16375816      -2.10971022       2.13503385
C        0.86258304      -0.87225139       0.32961479      -0.46987656       1.80196285      -1.88586235
C        1.61370850      -1.58859384       1.05965400       0.86744612      -1.00622368      -1.13431072