192
Lattice="12.417201 0.0 0.0 0.0 12.417201 0.0 0.0 0.0 12.417201" Properties=species:S:1:pos:R:3:apt:R:9:apt_charge:R:1:forces:R:3 energy=-30040.85260785646 electric_field="0.0 0.0 0.0" temperature=300 index=conf_0 pbc="T T T"
O        6.20507906       7.72080134      13.40638713      -1.27241000       0.04188800       0.10690500       0.10651700      -0.77549300      -0.11674800       0.10525600      -0.05787200      -0.87455800      -0.97415367      -1.90534197       1.41785615       0.19501694
H        6.71737552       8.54028517      13.08131357       0.39201600       0.05858500      -0.06850900       0.03809700       0.29162400      -0.03936700      -0.05410700      -0.04720900       0.41457200       0.36607067      -1.62484120      -1.29453707       0.61349083
H        5.13313007       7.95771398      13.63440959       1.31669200      -0.16937800      -0.16951200      -0.22036000       0.28944400       0.04637700      -0.22372800       0.04834400       0.33771600       0.64795067       3.43553863       0.05850161      -1.06313034
O        5.65166553       1.80564260       2.34580024      -0.94124000      -0.08084300      -0.02258700      -0.03331300      -0.95482300       0.20251100      -0.02918700       0.20176900      -1.51670500      -1.13758933      -0.67928851       0.35724119       1.99029602
H        5.36850280       2.06814096       3.38698286       0.35476000       0.04492800      -0.19562900       0.04266300       0.24438600       0.13392100      -0.28225500       0.15180800       1.30768200       0.63560933       0.45384381      -0.20632681      -4.08591244
H        5.27857972       2.40037958       1.59145813       0.30467800      -0.08299000       0.17252400      -0.11635700       0.56062800      -0.45982200       0.23444300      -0.47705400       0.91053400       0.59194667       0.37067757      -0.56453152       1.80079461
O       -0.67860098      10.93772253       0.17576092      -1.10699100      -0.22341900       0.13911900      -0.07943100      -1.29949000       0.31452800       0.10870000       0.26077100      -1.15351400      -1.18666500       0.94818390       2.77372627      -1.45139675
H       -1.05882010      10.28889835       0.81260453       0.42439200       0.32096200      -0.18353800       0.28547600       0.96736300      -0.50029600      -0.17696500      -0.52180100       0.55252400       0.64809300      -0.45830058       0.20854334       0.55433273
H       -0.85530383      11.96099250       0.26722497       0.36257800      -0.00844500       0.03794800      -0.01458600       0.90452200       0.17000600       0.03990200       0.20595900       0.36756100       0.54488700      -0.17112875      -2.27654786       0.93454942
O        4.87616162       3.30782324      12.67538173      -1.04697300      -0.12213400       0.03543200      -0.15837100      -1.16729300       0.10536200      -0.13426700       0.13604900      -0.95038100      -1.05488233       0.26409584       1.98985027      -1.23782265
H        5.61462313       3.97397268      12.36337885       0.87067200       0.49818200      -0.05709700       0.54949900       0.76990500      -0.02506900      -0.10390200      -0.06310300       0.22163200       0.62073633      -0.42971148      -1.02807807       1.12693068
H        4.11568105       3.82291376      12.33009360       0.48372700      -0.13083800       0.09460700      -0.14732800       0.45820900      -0.00464700       0.15959500      -0.05383600       0.33799400       0.42664333      -0.16277254      -0.17326085       0.53488264
O        8.94050190       9.17000605       6.47570028      -0.96604600      -0.10324300      -0.13029000       0.01194000      -0.88213800       0.04038400      -0.14863500       0.11335900      -0.95185500      -0.93334633       3.20030580      -1.10980822      -1.41782484
H        8.43482015       9.89132751       6.72970534       0.38491700      -0.21022600       0.02357900      -0.14792900       0.65648700      -0.05859400       0.02263700      -0.07103400       0.38759900       0.47633433      -2.24308710       2.64716513       0.86265307
H        8.48752620       8.37825111       6.69557341       0.41470400       0.15486000      -0.05448300       0.09658700       0.43786100      -0.04860500      -0.06595200      -0.07433500       0.43374800       0.42877100      -1.16459059      -1.36061738       0.72195762
O        8.07434464       2.23016973      12.54949047      -0.93236400      -0.08834100      -0.05023700       0.03556300      -1.11960000      -0.14980300      -0.03428000      -0.12005400      -1.08459800      -1.04552067       1.77286502       1.47321556      -0.72142536
H        8.06513695       2.79208184      13.38903012       0.28622000       0.00200400       0.08054400      -0.03061500       0.55054600       0.40912400       0.02387000       0.37882900       0.89574000       0.57750200      -0.27113487      -0.67192052      -0.47245870
H        8.70983355       2.78427119      11.93839663       0.34368600       0.01352400      -0.18074100       0.02080200       0.35705900      -0.21232400      -0.13935100      -0.17959400       0.68336700       0.46137067      -1.61457854      -1.25732112       0.88171810
O       -0.69124302       1.50158267       1.08142126      -1.25372800      -0.09581100       0.15488900      -0.17962300      -1.12847800      -0.05896100       0.18000100      -0.01185200      -0.76922100      -1.05047567       0.24632249      -0.14892323       0.72285785
H        0.35021424       1.67399919       1.15328881       1.24903300       0.17696100      -0.11160800       0.25992400       0.36687300      -0.03095500      -0.13043200      -0.03824900       0.23239500       0.61610033      -2.55424146      -0.52949378       0.70621789
H       -1.23054869       1.37320957      14.37419933       0.39698700       0.01750400      -0.14729600      -0.00119100       0.39872000      -0.08884000      -0.09239500      -0.09005200       0.56928500       0.45499733       2.13490164       0.38526191      -1.57497427
O        9.00744281       7.16717614      12.94991887      -0.90867400      -0.20612100      -0.16890900      -0.17245100      -0.81144800      -0.07361200      -0.16583500      -0.13936000      -0.63827100      -0.78613100       1.31807884      -1.37499233       8.24826032
H        8.53049539       7.51177634      12.31871629       0.41538100      -0.06543300      -0.01189900      -0.01950700       0.42758900      -0.03743900       0.01182900      -0.06635700       0.35340600       0.39879200      -6.94482655       4.37160451      -4.54680577
H        9.53953050       6.99736318      12.27071992       0.36564700       0.04200100       0.06035400       0.01528600       0.38226700       0.01417100      -0.01154900       0.04394600       0.36497700       0.37096367       6.09537164      -2.94376196      -4.02178242
O        1.75995874      -2.07698880       6.77188077      -0.85764800       0.05022400       0.09993700       0.09344600      -0.88069300       0.03466600       0.10909300       0.09368300      -1.03083700      -0.92305933       4.97745378       2.58391306       1.80862175
H        0.96833079      -2.34621300       6.50004243       0.37802000       0.06322400       0.02025100       0.07535300       0.39348800      -0.01027000      -0.01159800      -0.00327500       0.37195300       0.38115367      -5.33364329      -2.23264562      -2.21526308
H        2.46011839      -2.26628078       6.11771190       0.73664300      -0.16096400      -0.13343900      -0.22374900       0.43098500       0.04398600      -0.16687700       0.03436100       0.38667900       0.51810233      -0.24147095      -0.31922740       0.07523667
O        7.62496735       7.64417648       3.80853072      -0.78840400      -0.05661900      -0.05567100      -0.03937100      -0.81847700       0.13270700      -0.00985500       0.06036700      -0.87098800      -0.82595633      -0.45008416       0.54603167       2.48281725
H        7.76340011       7.41763572       2.90607191       0.36166500      -0.01409000       0.11857500      -0.02007500       0.33242000      -0.04046400       0.10145500       0.01026200       0.49991300       0.39799933       0.39956171      -0.37259800      -1.55643454
H        8.47059253       7.60829827       4.30440152       0.56280700      -0.06421700       0.04153600      -0.04805400       0.39279900       0.01727800       0.02805500       0.01814800       0.33812900       0.43124500      -0.08291483      -0.23942903      -0.92439209
O        1.98764252      14.40049944      13.46740126      -1.10973800       0.05483900       0.02591200      -0.03569300      -0.75347600       0.03709400       0.01329100       0.02635800      -0.80115600      -0.88812333       0.39638152       0.91134075      -0.48391027
H        2.35467984      14.12680899      12.59071338       0.38666200      -0.00933100      -0.09903100       0.00994200       0.30434800      -0.04543800      -0.09065900      -0.02008700       0.61163100       0.43421367       0.04571992       0.47142711       0.41953762
H        2.05589051      15.40371360      13.48862127       0.39510500      -0.06521000      -0.04548400      -0.05882300       0.44812900       0.15611900      -0.03079400       0.08989800       0.40768600       0.41697333      -0.05529301      -1.63392370      -0.15654859
O        3.35091944      12.54747960       3.06067103      -0.97208300      -0.05217600       0.11179400      -0.13865400      -0.98158200       0.01888800       0.17724900       0.03444800      -0.81220400      -0.92195633      -3.36705952       1.18717946      -0.83269447
H        2.84262885      13.19328747       2.44007845       0.41648900      -0.12364900       0.12463400      -0.14082400       0.51017700      -0.16365300       0.16492900      -0.17607700       0.49973400       0.47546667       1.12910035      -1.08322432       1.04902125
H        4.21969083      12.55229511       2.69464973       0.55404300       0.11329100      -0.04155200       0.15044800       0.47880600       0.00431500      -0.08161800       0.03115300       0.29076300       0.44120400       1.83038234       0.25981767      -0.48150918
O       -4.18764386       3.79459219       2.40153848      -1.01384800      -0.07372400       0.02228300      -0.04976000      -0.65513900      -0.16786800      -0.03622100      -0.16257900      -1.28285300      -0.98394667       1.57234375      -6.68948046       2.19714144
H        7.87039974       4.54598150       2.18878278       0.35095100      -0.01302600       0.06692900      -0.04685300       0.33738600      -0.02284600       0.06991800      -0.01615200       0.45977600       0.38270433      -4.13987030       6.97389314      -2.30957707
H        9.14878605       4.02124938       2.34907056       1.02669200       0.00488200       0.22555200       0.08414900       0.29159800       0.04909100       0.21149500       0.03312500       0.35306100       0.55711700       2.11417986      -0.16238401       0.34511240
O       10.80399944       7.29835918      -2.29416313      -1.03625200      -0.08783700      -0.07373200      -0.05955500      -1.07724400      -0.01768800      -0.09877500      -0.00561500      -1.15508800      -1.08952800      -2.44698797       1.11161370      -0.31130104
H       11.14367830       6.62043025      -2.86984973       0.50495700      -0.26028600      -0.19172600      -0.22361800       0.61958400       0.18375600      -0.19015400       0.19412700       0.44931800       0.52461967       1.22575018      -1.21090531      -0.51135141
H       11.55738904       7.61909348      10.60942098       0.60845000       0.08357100       0.36603700       0.04217000       0.31938700       0.05443100       0.36575500       0.05372700       0.68091800       0.53625167       1.19464841      -0.17181638       1.01758807
O       12.07032051      11.43811250       9.92143769      -1.35609500       0.16587600       0.12719800       0.02407600      -0.82934000      -0.14357700       0.14964000      -0.17261000      -1.10541900      -1.09695133       0.88119039       0.40904546       0.58150836
H       12.01999576      11.20500993      10.87729049       0.32230200      -0.00274700      -0.17604300      -0.02281400       0.26488500      -0.09233900      -0.11970800      -0.12722000       1.13660500       0.57459733      -0.57168069      -0.19897178       0.27533962
H       11.56252206      10.76568701       9.45343337       0.48838900       0.21664600       0.23448000       0.16736300       0.59345700       0.31757000       0.16902000       0.32183800       0.54646700       0.54277100      -0.86713510      -0.76814290      -0.81585362
O        4.75685333       6.98228163      -1.95533096      -0.99484100       0.09791200      -0.09124600      -0.05810600      -1.35129900      -0.07319200      -0.09972100      -0.04962700      -0.84558500      -1.06390833      -0.39863434       0.91124209      -0.23692928
H        5.37855717       6.81987714      -2.68403973       0.46961800      -0.03449400      -0.08300300      -0.01233900       0.24398100      -0.01041400      -0.01308400       0.01487800       0.39552100       0.36970667       0.16978558       0.14352343       0.01744597
H        4.59089277       8.01587056      -1.91456315       0.31219600      -0.27874300       0.00730800      -0.33374600       1.48906100       0.09965300      -0.00976700       0.15103500       0.27174200       0.69099967       0.17100383      -1.35140926      -0.23390445
O       11.10531295      -3.09879295       8.26892310      -0.88022000      -0.01558000      -0.25934100      -0.03740900      -1.03462400       0.03625600      -0.13614100       0.06855800      -1.31872400      -1.07785600      -0.85098634       0.67446063      -1.12556828
H       10.35451632      -3.00471054       7.55400469       0.77835500      -0.04222300       0.38524800      -0.03544400       0.23502200       0.02066900       0.37537300       0.01280500       0.65717700       0.55685133       1.16700993      -0.60376302       1.94441816
H       10.88819154       8.62119637       8.94722245       0.23251000      -0.01255700      -0.04184300      -0.00108300       0.71624500      -0.41321000      -0.07838900      -0.42839600       0.69987200       0.54954233      -0.42622260       0.16927437      -0.62856964
O       11.14320204       3.15585942       8.43968858      -1.30012600       0.23583900       0.19189300       0.13631200      -1.05938300       0.02359300       0.00974600       0.09093500      -1.18392300      -1.18114400      -2.18892544       2.19324662      -2.87835148
H       10.86310854       3.25024347       7.41350814       0.35155000       0.07843500       0.25071300       0.10177000       0.30612400       0.10051400       0.33621300       0.03045900       1.04199500       0.56655633       0.34550109      -0.81166997       2.67929176
H       11.79573046       2.46347867       8.54007350       0.90071000      -0.53896000       0.29603100      -0.46365900       0.67534700      -0.20718400       0.20205400      -0.17671000       0.23483600       0.60363100       1.27231994      -1.15713959       0.29918187
O        2.04703208      10.67710275       9.32759503      -1.65160500       0.12998400       0.03574300       0.13180700      -0.99161500       0.07024700       0.09722600       0.01884900      -1.22445700      -1.28922567      -1.74776894       0.99191298       4.40034828
H       13.37971660      10.87559712       9.65864829       1.64709600      -0.42246000      -0.43513200      -0.30817700       0.35414000       0.09127200      -0.44053700       0.13390900       0.36899100       0.79007567       2.52913481       0.05762457      -0.81265992
H        1.92093973      10.37028580       8.46228445       0.19873400       0.04491100       0.02733100       0.02951000       0.27829200       0.07160300       0.02373600       0.13919200       1.01836700       0.49846433      -0.08824350      -0.90792244      -2.82672285
O        7.62713698       0.80331747       9.18630471      -0.66315000      -0.03742300      -0.00614500       0.08098300      -0.81740400      -0.12308600       0.12837900      -0.07410200      -0.89441300      -0.79165567       1.17724855      -2.76132594      -2.96466259
H        7.54395032      -0.04216219       8.51483175       0.28055600      -0.01773100       0.00367600      -0.06749400       0.37812600       0.07633800      -0.05743200       0.03969100       0.53555500       0.39807900       0.36480120       2.93271950       2.24938871
H        6.76923488       0.86389238       9.57816044       0.38172300      -0.04386100      -0.12831500      -0.08671100       0.26744400       0.05188800      -0.18930700       0.02816600       0.54533400       0.39816700      -1.52704446      -0.07249812       0.96750004
O        4.08930157      -3.12194975       5.99737700      -0.82526500       0.16085200       0.01777000       0.16792400      -0.68681100       0.03736600       0.06432300      -0.03552000      -0.71901200      -0.74369600      -1.96697129      -1.89937110      -3.86418603
H        4.01184061      -3.84094283       6.61910731       0.32960800      -0.04480200       0.00316000      -0.05123200       0.31120600       0.02400500       0.03290200       0.03044000       0.30165000       0.31415467       0.28844759      -0.53980300       1.13216250
H        3.51032349      -3.62464164       5.19730339       0.37325000      -0.10913700       0.07533000      -0.06333000       0.37496800      -0.07951500       0.04699500      -0.11877600       0.48135000       0.40985600       2.16764337       2.10970275       2.62683050
O        4.21163146       9.52317892      -1.91598134      -1.13905300       0.20224400      -0.08796600       0.35790800      -1.25175500       0.03947000      -0.17755100       0.03189300      -0.95221400      -1.11434067      -1.58623410       0.71492549       2.16598147
H        3.20690915       9.82258739      -2.13330913       0.97977100      -0.32383400       0.42431300      -0.41963200       0.45992700      -0.28191200       0.46218100      -0.23415500       0.53262000       0.65743933       1.87595301      -0.30564743       0.14701981
H        4.38566197       9.65420320      -0.89629919       0.31556800       0.07934900       0.13302200       0.10340000       0.44617300       0.17975800       0.14514000       0.18408700       0.68795600       0.48323233      -0.28191886       0.18564034      -2.26758579
O        5.65304139       1.14185859      -1.05080306      -1.19538900       0.01543000      -0.03404500       0.02575100      -0.91688600       0.00181400      -0.03022300       0.02848400      -0.95555100      -1.02260867       1.86956049       0.26025375       1.31492779
H        6.56507831       1.43330293      -0.46566642       0.93022600       0.24220900       0.24099800       0.24493500       0.40084300       0.09583300       0.23883500       0.08853000       0.40216900       0.57774600      -3.41149372       0.03556602      -1.93162590
H        4.88805223       1.79703818      -0.95267244       0.51686700      -0.16898700       0.00973900      -0.16905000       0.54466800       0.15173800       0.06264900       0.11175300       0.36956500       0.47703333       1.96625213      -0.68571837       0.52238855
O        6.90787931       5.06211449      12.53821900      -0.93988200      -0.16653200       0.00199100      -0.22878000      -1.04266000       0.03539900       0.09518600      -0.04320300      -0.66507000      -0.88253733       1.17704271       0.80475744      -5.53894060
H        7.32624681       5.00053414      11.48012917       0.44201600       0.03990500      -0.18856400       0.05659100       0.40716600      -0.12821600      -0.21880000      -0.09298200       0.51444900       0.45454367      -0.90815002      -0.45655750       4.12005679
H        6.65170462       6.00346254      12.30982612       0.38296800      -0.10569500      -0.01987600      -0.10313100       0.66451100       0.13804200      -0.01107000       0.17168600       0.34121300       0.46289733      -0.38818597      -0.24590161       1.43704585
O       11.13870403       0.50249610       3.92426178      -0.87988800      -0.02150100       0.01845900      -0.11461300      -0.95391700      -0.17281200      -0.08792600      -0.13161500      -0.88254300      -0.90544933      -2.24306170       3.01848563      -2.58071860
H       11.77519838       0.28526303       4.51578136       0.52960000      -0.00251200       0.05235700      -0.00310700       0.30718100       0.05962300       0.07973000       0.06071800       0.30643400       0.38107167       3.53871741      -1.54712170       2.75633951
H       10.57772327      -0.24199433       3.74183323       0.57703300       0.02951300       0.06591500       0.11689700       0.61976600      -0.03730100       0.11094300      -0.02395400       0.31832400       0.50504100      -0.56040786      -0.82924825       0.24812510
O        2.94806212      17.54158953      -1.01733260      -0.88213300      -0.07317500       0.05290100      -0.00528700      -1.07418100       0.07267000       0.00282900       0.09703900      -0.88771000      -0.94800800      -3.54825343       0.36947909       0.98394269
H        2.02356836       5.55911244      -0.75248999       0.57681700       0.02587100      -0.10059600      -0.03152400       0.35672000       0.02601600      -0.07539600       0.02495000       0.37199500       0.43517733       2.10376279      -1.56337050      -0.53190542
H        3.36260896      18.28698855      -1.45117854       0.50865300       0.29611200      -0.11831600       0.36302200       0.51357000      -0.17465800      -0.13100000      -0.14082000       0.42532700       0.48251667       1.46858221       0.91193258      -0.32327270
O        1.03211252       4.60551393       5.74316027      -0.80402600       0.01282900       0.02803400      -0.00545500      -0.91023200      -0.03447400       0.03104400      -0.03532300      -0.75887400      -0.82437733      -1.28339993      -0.97013871      -3.51175453
H        1.24077239       5.38030346       6.20243317       0.49739400      -0.03089800      -0.04790700      -0.03243400       0.48336700       0.03447400      -0.02769200       0.01455100       0.28625500       0.42233867       0.38806646       1.37271467       1.58174599
H        1.01055914       3.81153116       6.23365463       0.43150500      -0.07752900       0.01291700      -0.10315600       0.50134300      -0.05983000       0.01783800      -0.05651300       0.30004700       0.41096500       0.37097623      -0.91564334       1.55415236
O       -1.71671967       3.98756196       3.02660260      -0.94184300       0.01512000       0.08016900      -0.03855400      -0.89938900       0.03426100      -0.00649900      -0.02144600      -0.84460300      -0.89527833       1.94152539       0.87312935      -5.18047577
H       -1.71143848       3.94162408       3.93124162       0.25020300       0.02362200      -0.10864800       0.02718000       0.46178200      -0.20035500      -0.06616800      -0.11842900       0.60744000       0.43980833       0.37621218      -0.37932652       4.25956085
H       -0.78157357       4.17322907       2.66461893       0.61369800       0.02311200      -0.15851100       0.03712400       0.41967600       0.01841300      -0.08013300       0.02292200       0.35440700       0.46259367      -1.77227628      -0.47646343       0.99137454
O        6.95079558       7.24665856       7.98496661      -1.03721500       0.00058000      -0.07924900       0.04065300      -0.98628000       0.02410900      -0.16185600       0.00156700      -1.43386600      -1.15245367      -0.02615029       1.94923656       0.94159091
H        7.53521889       6.82294637       8.65024820       0.54554900      -0.18752100       0.36753900      -0.21478300       0.41811500      -0.38634100       0.37200900      -0.35164500       0.87247100       0.61204500      -0.10297917      -0.47915436       0.15209706
H        6.77690795       6.68678907       7.24279557       0.32511700       0.13339700       0.11692600       0.16570000       0.40521700       0.31565300       0.16731100       0.30893500       0.83473700       0.52169033      -0.35734331      -1.43511834      -1.15854203
O        2.63745097      10.01118615       3.70334088      -1.00967300      -0.06184300       0.03618700      -0.11966600      -1.17773700       0.09922800       0.07590800       0.07382400      -0.87388600      -1.02043200      -1.05508130       0.38601320       0.94754983
H        2.60642002      10.85421836       3.16411988       0.32899400       0.17377900      -0.02962400       0.15708200       0.98948800      -0.14194500      -0.02221800      -0.15267000       0.36515800       0.56121333       0.83999291      -1.03397778       0.01824608
H        3.03119057       9.23636487       3.27799882       0.38711700      -0.08531000      -0.04790900      -0.04961700       0.43106400       0.21004500      -0.06599900       0.20746700       0.56510000       0.46109367       0.16215439       0.53695762      -1.30336149
O        1.47298064       0.41531415       5.19693297      -0.83574200      -0.15442900      -0.00351400      -0.15972300      -0.92570100      -0.08138500      -0.06529700      -0.11733500      -1.15507400      -0.97217233      -0.17968737       1.57593003      -0.96860843
H        1.57503247      -0.27021111       5.85539876       0.27387700       0.03736200       0.02991000       0.03596100       0.65963900      -0.19253300       0.05306000      -0.14251100       0.45583000       0.46311533       0.63372601      -1.20863804       0.10970322
H        2.14920032       0.41491938       4.45807987       0.53492100       0.01612400      -0.26623900       0.00818100       0.30612800       0.03810800      -0.34123300       0.02113100       0.72110800       0.52071900      -0.23501926      -0.69123368       1.13011744
O        4.81862418      12.26442271       6.41823164      -1.00767000       0.05804600       0.26433800       0.08026000      -0.88763200       0.02921100       0.17601400       0.14861200      -1.33744900      -1.07758367      -0.60663636      -1.23991030       2.05315193
H        4.53959433      12.14588702       7.49706522       0.52775400      -0.16332000      -0.47688800      -0.14457600       0.28122200       0.20808000      -0.40095600       0.23116300       1.36048300       0.72315300       0.45944882       0.93753940      -2.60055424
H        4.43856382      11.44070546       6.01526319       0.32661000       0.02543500       0.03710400       0.01379800       0.47941600       0.06789600       0.01642800       0.07798700       0.30029200       0.36877267       0.51448123       0.73436829       0.19228322
O        6.34705730       9.95615172      -3.70222960      -0.88550100       0.11587800       0.01588900       0.07739900      -0.81737800       0.00129800      -0.00841000      -0.04182500      -0.95224700      -0.88504200      -0.48664874      -1.59348179       0.19738278
H        5.56556840       9.90540362      -3.11532974       0.60778000      -0.00217300      -0.25202400       0.00993700       0.27540200      -0.04508500      -0.21598100      -0.02269300       0.52464200       0.46927467      -0.28256118       1.09724250       0.38707971
H        6.31969884       8.97320505      -3.87815986       0.32314800      -0.15260400      -0.05220300      -0.16520500       0.63362200       0.14869500      -0.03909100       0.15698800       0.36113900       0.43930300       0.94355774       0.65454612      -0.64370905
O       10.82029810      -3.44146166       1.66655896      -1.01799200      -0.18903900      -0.09281300      -0.07001100      -1.06296700      -0.01064600      -0.01145100      -0.01975700      -1.15555100      -1.07883667       1.96756387      -2.90648841       1.55557296
H       10.20899259      -4.03895035      13.52852123       0.76606400       0.39424900       0.28662600       0.33414400       0.50217800       0.21181800       0.28599600       0.26445200       0.46689900       0.57838033       0.38530349       0.36627749       0.99982776
H       11.52749053      -4.15263349       2.20991283       0.57524200      -0.23146300       0.07297800      -0.24779000       0.49698300      -0.05349300       0.10527500      -0.06452100       0.48806300       0.52009600      -2.84000335       2.47874783      -2.18874048
O        8.96156315       3.53638017       9.95969720      -1.26829400       0.05289800       0.25854400       0.09132900      -0.98659500       0.12798700       0.39477700       0.02012600      -1.02042100      -1.09177000       1.54793111      -2.44980244      -0.75890102
H        8.40693251       2.70582067       9.69886576       0.36042700       0.22341200       0.03952000       0.17988200       0.54109700       0.06114200       0.03732700       0.05953500       0.37228600       0.42460333       1.45077860       1.45023632       0.22835570
H       10.01811837       3.29918178       9.62144713       1.18905500      -0.11358500      -0.60547500      -0.07059400       0.23623100       0.06378700      -0.65962500       0.10391400       0.74327900       0.72285500      -3.31132166       0.55978538       0.11967708
O        7.78255632      11.74133104       6.23682969      -0.93029400       0.00819300       0.05627100       0.04036200      -0.76287500      -0.08423300       0.07196200      -0.03964300      -0.90593800      -0.86636900      -2.84486529      -5.79003234       4.34630737
H        6.80347265      11.82838069       6.39902251       0.83099300      -0.00597500      -0.05942400      -0.06281900       0.31029000       0.03058800      -0.04292600       0.01260000       0.39128200       0.51085500       0.58390926      -0.00887138      -0.24537124
H        8.02126816      12.42169418       5.75549010       0.32402600       0.05890200      -0.03401000       0.05160600       0.30536700       0.03370500      -0.04621500       0.02810600       0.41875300       0.34938200       2.02328980       5.69001477      -4.11844824